LAMMPS (10 Feb 2021)
  using 8 OpenMP thread(s) per MPI task
#===============variable=============================
#=============thermostat=======================
variable nvt_dt            equal   0.0002
variable nvt_nsteps        equal   50000
variable thermo_nsteps     equal   2000
variable coor_nsteps       equal   1
variable cutoff            equal   5.0
variable neigh_skin        equal   0.5   # skin for the save the calculation of pbc
variable T_start           equal   300.0
variable T_end             equal   300.0
variable T_damp            equal   100*${nvt_dt}
variable T_damp            equal   100*0.0002
variable seed              equal   999999999
variable mass1             equal   15.9994
variable mass2             equal   1.008
variable input_structure   string  data.lmp
variable integerate        string  verlet  # integerate algorithm in MD simulation
variable poten_function    string  reann_eqz
variable datatype          string  float  # optional float/double

units           metal
# this command should be used prior to setting up a simulation box via the create_box or
# read_data commands. Restart files also store this setting.
dimension       3          # simulation dimensions
#newton          off        # calculate the pair interaction on each processor
#processors      3  3  3           # processor on each dimension
boundary        p   p   p   # p/f/s period/non-period/shrink_warp
# This command must be used before a simulation is setup via a read_data, read_restart,
# or create_box command.
atom_style      atomic      # properties to store and read
# The id and map keywords must be specified before a simulation box is defined;
# other keywords can be specified any time.
#atom_modify     map yes   # non-zero atom IDs can be assigned to each atom.
read_data       ${input_structure}          # read data from the file
read_data       data.lmp          
Reading data file ...
  orthogonal box = (0.0000000 0.0000000 0.0000000) to (12.618500 12.618500 12.618500)
  1 by 1 by 1 MPI processor grid
  reading atoms ...
  192 atoms
  read_data CPU = 0.003 seconds
mass 1 ${mass1}          # set mass for element 1
mass 1 15.9994          
mass 2 ${mass2}          # set mass for element 2
mass 2 1.008          
replicate  1  1   1
Replicating atoms ...
  orthogonal box = (0.0000000 0.0000000 0.0000000) to (12.618500 12.618500 12.618500)
  1 by 1 by 1 MPI processor grid
  192 atoms
  replicate CPU = 0.001 seconds

neighbor ${neigh_skin} bin   #skin = extra distance beyond force cutoff;style = bin or nsq or multi
neighbor 0.5 bin   
velocity all create ${T_start} ${seed}
velocity all create 300 ${seed}
velocity all create 300 999999999
pair_style ${poten_function}
pair_style reann_eqz
pair_coeff * * ${cutoff} ${datatype} 2 O H
pair_coeff * * 5 ${datatype} 2 O H
pair_coeff * * 5 float 2 O H
#dump 1 all atom ${coor_nsteps} dump.atom  #output the trajectories configurations
# used for thermalstat
   timestep ${nvt_dt}
   timestep 0.0002
   #run_style ${integerate}
   fix 1 all nvt temp ${T_start} ${T_end} ${T_damp}
   fix 1 all nvt temp 300 ${T_end} ${T_damp}
   fix 1 all nvt temp 300 300 ${T_damp}
   fix 1 all nvt temp 300 300 0.02
   thermo ${thermo_nsteps}
   thermo 2000
   run ${nvt_nsteps}
   run 50000
Neighbor list info ...
  update every 1 steps, delay 10 steps, check yes
  max neighbors/atom: 2000, page size: 100000
  master list distance cutoff = 5.5
  ghost atom cutoff = 5.5
  binsize = 2.75, bins = 5 5 5
  1 neighbor lists, perpetual/occasional/extra = 1 0 0
  (1) pair reann_eqz, perpetual
      attributes: full, newton on
      pair build: full/bin/atomonly
      stencil: full/bin/3d
      bin: standard
Per MPI rank memory allocation (min/avg/max) = 9.263 | 9.263 | 9.263 Mbytes
Step Temp E_pair E_mol TotEng Press 
       0          300   -30035.109            0   -30027.703   -3925.0618 
    2000    393.02203   -29959.438            0   -29949.734   -2853.9399 
    4000    404.32128   -29960.922            0    -29950.94   -8226.7652 
    6000     357.1683    -29957.74            0   -29948.922   -7287.3994 
    8000    340.53602   -29960.346            0   -29951.938   -11202.788 
   10000    371.21704    -29957.68            0   -29948.515   -6089.4247 
   12000    341.05045   -29960.131            0   -29951.711   -5875.8299 
   14000    403.03021   -29961.686            0   -29951.735   -10786.459 
   16000     369.1079   -29959.062            0    -29949.95   -11946.026 
   18000    367.78824   -29955.729            0   -29946.648   -4932.8653 
   20000    379.55066   -29957.211            0    -29947.84   -6651.6637 
   22000    357.95666   -29957.074            0   -29948.237   -8160.3387 
   24000    385.96668   -29959.457            0   -29949.928   -5238.0469 
   26000    376.03009   -29960.514            0    -29951.23   -10396.194 
   28000     402.6828     -29957.1            0   -29947.158   -6956.4695 
   30000    356.54895   -29956.918            0   -29948.115   -8404.0541 
   32000    370.03347   -29954.518            0   -29945.382   -5854.6443 
   34000    344.59899   -29959.539            0   -29951.031   -10873.786 
   36000    458.72902   -29960.721            0   -29949.395    -5407.671 
   38000    345.44108   -29961.646            0   -29953.118   -6921.8058 
   40000    374.13954   -29960.082            0   -29950.845   -11329.685 
   42000    334.76063    -29959.32            0   -29951.056   -6574.8046 
   44000     361.3958   -29954.883            0    -29945.96   -4848.4329 
   46000    424.54083   -29948.633            0   -29938.151   -7579.5116 
   48000    334.12448   -29958.822            0   -29950.573   -11517.408 
   50000    368.48936   -29954.045            0   -29944.947   -8453.3713 
Loop time of 16790.7 on 8 procs for 50000 steps with 192 atoms

Performance: 0.051 ns/day, 466.409 hours/ns, 2.978 timesteps/s
637.1% CPU use with 1 MPI tasks x 8 OpenMP threads

MPI task timing breakdown:
Section |  min time  |  avg time  |  max time  |%varavg| %total
---------------------------------------------------------------
Pair    | 16779      | 16779      | 16779      |   0.0 | 99.93
Neigh   | 1.4429     | 1.4429     | 1.4429     |   0.0 |  0.01
Comm    | 0.50981    | 0.50981    | 0.50981    |   0.0 |  0.00
Output  | 0.0021756  | 0.0021756  | 0.0021756  |   0.0 |  0.00
Modify  | 0.74467    | 0.74467    | 0.74467    |   0.0 |  0.00
Other   |            | 8.783      |            |       |  0.05

Nlocal:        192.000 ave         192 max         192 min
Histogram: 1 0 0 0 0 0 0 0 0 0
Nghost:        1104.00 ave        1104 max        1104 min
Histogram: 1 0 0 0 0 0 0 0 0 0
Neighs:         0.00000 ave           0 max           0 min
Histogram: 1 0 0 0 0 0 0 0 0 0
FullNghs:      12396.0 ave       12396 max       12396 min
Histogram: 1 0 0 0 0 0 0 0 0 0

Total # of neighbors = 12396
Ave neighs/atom = 64.562500
Neighbor list builds = 2868
Dangerous builds = 189

#   reset_timestep 0
## used for calculate the rdf
#   fix 1 all nvt temp ${T_start} ${T_end} ${T_damp}
#   dump 11 all custom 1 dump.nvt.lmp id element xu yu zu vx vy vz
#   dump_modify 11 element O H
#   dump_modify 11 format line "%3i %s %12.8f %12.8f %12.8f %12.8f %12.8f %12.8f"
#   dump_modify 11 sort id
#   run 500000
Total wall time: 4:39:51
